{
  "components": [
    {
      "id": 1,
      "name": "Água",
      "formula": "H2O",
      "cas_number": "7732-18-5",
      "molecular_weight": 18.015,
      "critical_temperature": 647.1,
      "critical_pressure": 22064000,
      "acentric_factor": 0.344,
      "antoine_a": 8.07131,
      "antoine_b": 1730.63,
      "antoine_c": 233.426,
      "antoine_tmin": 273.15,
      "antoine_tmax": 373.15,
      "uniquac_r": 0.92,
      "uniquac_q": 1.4,
      "fusion_temp": 273.15,
      "fusion_enthalpy": 6010
    },
    {
      "id": 2,
      "name": "Etanol",
      "formula": "C2H5OH",
      "cas_number": "64-17-5",
      "molecular_weight": 46.069,
      "critical_temperature": 513.9,
      "critical_pressure": 6137000,
      "acentric_factor": 0.644,
      "antoine_a": 8.20417,
      "antoine_b": 1642.89,
      "antoine_c": 230.3,
      "antoine_tmin": 273.15,
      "antoine_tmax": 351.44,
      "uniquac_r": 2.1055,
      "uniquac_q": 1.972,
      "fusion_temp": 159.05,
      "fusion_enthalpy": 4931
    },
    {
      "id": 3,
      "name": "Acetona",
      "formula": "C3H6O",
      "cas_number": "67-64-1",
      "molecular_weight": 58.08,
      "critical_temperature": 508.1,
      "critical_pressure": 4700000,
      "acentric_factor": 0.307,
      "antoine_a": 7.11714,
      "antoine_b": 1210.595,
      "antoine_c": 229.664,
      "antoine_tmin": 273.15,
      "antoine_tmax": 329.2,
      "uniquac_r": 2.5735,
      "uniquac_q": 2.336,
      "fusion_temp": 178.5,
      "fusion_enthalpy": 5690
    },
    {
      "id": 4,
      "name": "Benzeno",
      "formula": "C6H6",
      "cas_number": "71-43-2",
      "molecular_weight": 78.114,
      "critical_temperature": 562.05,
      "critical_pressure": 4895000,
      "acentric_factor": 0.210,
      "antoine_a": 6.90565,
      "antoine_b": 1211.033,
      "antoine_c": 220.79,
      "antoine_tmin": 273.15,
      "antoine_tmax": 353.24,
      "uniquac_r": 3.1878,
      "uniquac_q": 2.4,
      "fusion_temp": 278.68,
      "fusion_enthalpy": 9866
    },
    {
      "id": 5,
      "name": "Tolueno",
      "formula": "C7H8",
      "cas_number": "108-88-3",
      "molecular_weight": 92.141,
      "critical_temperature": 591.75,
      "critical_pressure": 4108000,
      "acentric_factor": 0.262,
      "antoine_a": 6.95464,
      "antoine_b": 1344.8,
      "antoine_c": 219.482,
      "antoine_tmin": 273.15,
      "antoine_tmax": 383.78,
      "uniquac_r": 3.9228,
      "uniquac_q": 2.968,
      "fusion_temp": 178.18,
      "fusion_enthalpy": 6636
    }
  ]
}
